  -3.29999998E-02    -1.00000002E-24
  -3.28500010E-02    -1.00000022E-24
  -3.26999985E-02    -1.00000022E-24
  -3.25499997E-02    -1.00000012E-24
  -3.24000008E-02    -9.99999822E-25
  -3.22499983E-02    -1.00000012E-24
  -3.20999995E-02    -1.00000071E-24
  -3.19500007E-02    -1.00000071E-24
  -3.18000019E-02    -9.99999033E-25
  -3.16499993E-02    -9.99999132E-25
  -3.15000005E-02    -1.00000248E-24
  -3.13500017E-02    -9.99999132E-25
  -3.11999992E-02    -9.99998935E-25
  -3.10500003E-02    -1.00000170E-24
  -3.08999997E-02    -9.99999921E-25
  -3.07500008E-02    -9.99999625E-25
  -3.06000002E-02    -9.99999724E-25
  -3.04499995E-02    -1.00000051E-24
  -3.03000007E-02    -1.00000022E-24
  -3.01500000E-02    -1.00000012E-24
  -2.99999993E-02    -1.00000051E-24
  -2.98500005E-02    -9.99998343E-25
  -2.96999998E-02    -1.00000120E-24
  -2.95499992E-02    -1.00000239E-24
  -2.94000003E-02    -9.99998146E-25
  -2.92499997E-02    -9.99998442E-25
  -2.91000009E-02    -1.00000170E-24
  -2.89500002E-02    -9.99999428E-25
  -2.87999995E-02    -9.99999625E-25
  -2.86500007E-02    -1.00000022E-24
  -2.85000000E-02    -1.00000002E-24
  -2.83499993E-02    -1.00000002E-24
  -2.82000005E-02    -1.00000002E-24
  -2.80499998E-02    -1.00000357E-24
  -2.78999992E-02    -9.99999625E-25
  -2.77500004E-02    -9.99996864E-25
  -2.75999997E-02    -1.00000170E-24
  -2.74500009E-02    -9.99999231E-25
  -2.73000002E-02    -9.99999527E-25
  -2.71499995E-02    -1.00000101E-24
  -2.70000007E-02    -9.99999724E-25
  -2.68500000E-02    -1.00000002E-24
  -2.66999993E-02    -9.99998738E-25
  -2.65500005E-02    -1.00000327E-24
  -2.63999999E-02    -1.00000041E-24
  -2.62499992E-02    -9.99996765E-25
  -2.61000004E-02    -1.00000120E-24
  -2.59499997E-02    -1.00000091E-24
  -2.58000009E-02    -9.99999822E-25
  -2.56500002E-02    -9.99999822E-25
  -2.54999995E-02    -1.00000041E-24
  -2.53500007E-02    -1.00000061E-24
  -2.52000000E-02    -9.99997653E-25
  -2.50499994E-02    -1.00000110E-24
  -2.49000005E-02    -1.00000041E-24
  -2.47499999E-02    -9.99998245E-25
  -2.45999992E-02    -1.00000150E-24
  -2.44500004E-02    -1.00000012E-24
  -2.42999997E-02    -1.00000071E-24
  -2.41500009E-02    -1.00000032E-24
  -2.40000002E-02    -9.99999724E-25
  -2.38499995E-02    -1.00000209E-24
  -2.37000007E-02    -9.99997456E-25
  -2.35500000E-02    -9.99999724E-25
  -2.33999994E-02    -1.00000051E-24
  -2.32500006E-02    -9.99998639E-25
  -2.30999999E-02    -1.00000258E-24
  -2.29499992E-02    -9.99998639E-25
  -2.28000004E-02    -1.00000041E-24
  -2.26499997E-02    -1.00000179E-24
  -2.25000009E-02    -9.99997554E-25
  -2.23500002E-02    -1.00000110E-24
  -2.21999995E-02    -1.00000032E-24
  -2.20500007E-02    -9.99999724E-25
  -2.19000001E-02    -1.00000041E-24
  -2.17499994E-02    -9.99997357E-25
  -2.16000006E-02    -1.00000298E-24
  -2.14499999E-02    -9.99999724E-25
  -2.12999992E-02    -9.99997949E-25
  -2.11500004E-02    -1.00000268E-24
  -2.09999997E-02    -9.99997259E-25
  -2.08500009E-02    -9.99999625E-25
  -2.07000002E-02    -1.00000239E-24
  -2.05499995E-02    -1.00000051E-24
  -2.04000007E-02    -1.00000081E-24
  -2.02500001E-02    -9.99996864E-25
  -2.00999994E-02    -1.00000199E-24
  -1.99500006E-02    -1.00000278E-24
  -1.97999999E-02    -9.99996272E-25
  -1.96499992E-02    -1.00000091E-24
  -1.95000004E-02    -9.99999231E-25
  -1.93499997E-02    -9.99996963E-25
  -1.92000009E-02    -1.00000239E-24
  -1.90500002E-02    -1.00000209E-24
  -1.88999996E-02    -9.99999724E-25
  -1.87500007E-02    -9.99998343E-25
  -1.86000001E-02    -1.00000170E-24
  -1.84499994E-02    -1.00000229E-24
  -1.83000006E-02    -9.99997949E-25
  -1.81499999E-02    -1.00000012E-24
  -1.79999992E-02    -1.00000101E-24
  -1.78500004E-02    -9.99997949E-25
  -1.76999997E-02    -9.99999033E-25
  -1.75500009E-02    -1.00000357E-24
  -1.74000002E-02    -1.00000061E-24
  -1.72499996E-02    -9.99996667E-25
  -1.71000008E-02    -1.00000120E-24
  -1.69500001E-02    -1.00000179E-24
  -1.67999994E-02    -9.99998146E-25
  -1.66500006E-02    -1.00000061E-24
  -1.64999999E-02    -1.00000091E-24
  -1.63499992E-02    -1.00000022E-24
  -1.62000004E-02    -9.99999231E-25
  -1.60499997E-02    -9.99999822E-25
  -1.59000009E-02    -1.00000258E-24
  -1.57500003E-02    -9.99998146E-25
  -1.55999996E-02    -9.99998343E-25
  -1.54499998E-02    -1.00000288E-24
  -1.53000001E-02    -9.99997653E-25
  -1.51500003E-02    -9.99999329E-25
  -1.49999997E-02    -1.00000209E-24
  -1.48499999E-02    -1.00000071E-24
  -1.47000002E-02    -1.00000110E-24
  -1.45500004E-02    -9.99997259E-25
  -1.43999998E-02    -1.00000051E-24
  -1.42500000E-02    -1.00000298E-24
  -1.41000003E-02    -9.99996765E-25
  -1.39499996E-02    -1.00000002E-24
  -1.37999998E-02    -9.99999329E-25
  -1.36500001E-02    -9.99997259E-25
  -1.35000004E-02    -1.00000347E-24
  -1.33499997E-02    -1.00000051E-24
  -1.31999999E-02    -1.00000061E-24
  -1.30500002E-02    -1.00000051E-24
  -1.29000004E-02    -9.99996667E-25
  -1.27499998E-02    -1.00000337E-24
  -1.26000000E-02    -1.00000160E-24
  -1.24500003E-02    -9.99997160E-25
  -1.22999996E-02    -1.00000239E-24
  -1.21499998E-02    -9.99997850E-25
  -1.20000001E-02    -1.00000101E-24
  -1.18500004E-02    -1.00000189E-24
  -1.16999997E-02    -9.99996470E-25
  -1.15499999E-02    -1.00000347E-24
  -1.14000002E-02    -9.99997850E-25
  -1.12500004E-02    -9.99996568E-25
  -1.10999998E-02    -1.00000574E-24
  -1.09500000E-02    -9.99999231E-25
  -1.08000003E-02    -1.00000081E-24
  -1.06499996E-02    -1.00000032E-24
  -1.04999999E-02    -9.99997259E-25
  -1.03500001E-02    -1.00000239E-24
  -1.02000004E-02    -9.99996667E-25
  -1.00499997E-02    -1.00000120E-24
  -9.89999995E-03    -1.00000317E-24
  -9.75000020E-03    -9.99994399E-25
  -9.60000046E-03    -1.00000219E-24
  -9.44999978E-03    -1.00000288E-24
  -9.30000003E-03    -9.99998442E-25
  -9.15000029E-03    -1.00000041E-24
  -8.99999961E-03    -9.99998639E-25
  -8.84999987E-03    -1.00000101E-24
  -8.70000012E-03    -9.99998343E-25
  -8.55000038E-03    -1.00000022E-24
  -8.39999970E-03    -1.00000554E-24
  -8.24999996E-03    -9.99997752E-25
  -8.10000021E-03    -9.99996963E-25
  -7.95000046E-03    -1.00000110E-24
  -7.79999979E-03    -9.99999231E-25
  -7.65000004E-03    -1.00000209E-24
  -7.49999983E-03    -9.99998146E-25
  -7.35000009E-03    -1.00000742E-24
  -7.19999988E-03    -9.99977438E-25
  -7.05000013E-03    -1.00004114E-24
  -6.89999992E-03    -9.99926853E-25
  -6.75000018E-03    -1.00012870E-24
  -6.59999996E-03    -9.99824597E-25
  -6.45000022E-03    -1.00016164E-24
  -6.30000001E-03    -9.99991934E-25
  -6.14999980E-03    -9.99570978E-25
  -6.00000005E-03    -1.00128705E-24
  -5.84999984E-03    -9.97408316E-25
  -5.70000010E-03    -1.00418019E-24
  -5.54999989E-03    -9.94273580E-25
  -5.40000014E-03    -1.00703084E-24
  -5.24999993E-03    -9.91405084E-25
  -5.10000018E-03    -1.01186646E-24
  -4.94999997E-03    -9.82043968E-25
  -4.80000023E-03    -1.02349279E-24
  -4.65000002E-03    -9.87631765E-25
  -4.49999981E-03    -9.45372881E-25
  -4.35000006E-03    -1.24736688E-24
  -4.19999985E-03    -3.47727668E-25
  -4.05000011E-03    -2.28961553E-24
  -3.89999989E-03     9.38501114E-25
  -3.74999992E-03    -2.94252296E-24
  -3.59999994E-03    -8.63119735E-25
  -3.44999996E-03     3.81306410E-24
  -3.29999998E-03    -1.41564813E-23
  -3.15000000E-03     2.07973017E-23
  -3.00000003E-03    -2.30834616E-23
  -2.85000005E-03    -1.11358761E-24
  -2.70000007E-03     5.74421816E-23
  -2.55000009E-03    -1.54248131E-22
  -2.40000011E-03     2.57502678E-22
  -2.24999990E-03    -3.12775826E-22
  -2.09999993E-03     2.07637379E-22
  -1.94999995E-03     1.75413433E-22
  -1.79999997E-03    -9.33596207E-22
  -1.64999999E-03     2.01161197E-21
  -1.50000001E-03    -3.03456620E-21
  -1.35000004E-03     3.09064121E-21
  -1.20000006E-03    -8.42565445E-22
  -1.04999996E-03    -4.92439804E-21
  -8.99999985E-04     1.35752665E-20
  -7.50000007E-04    -2.02995438E-20
  -6.00000028E-04     1.61947989E-20
  -4.49999992E-04     6.44371274E-21
  -3.00000014E-04    -4.35164663E-20
  -1.50000007E-04     6.83012273E-20
  -6.93889390E-18    -3.67061914E-20
   1.50000007E-04    -7.94698522E-20
   3.00000014E-04     2.39772569E-19
   4.49999992E-04    -3.01179046E-19
   6.00000028E-04     6.43090275E-20
   7.50000007E-04     5.49248134E-19
   8.99999985E-04    -1.27086716E-18
   1.04999996E-03     1.43259700E-18
   1.20000006E-03    -3.19944982E-19
   1.35000004E-03    -2.17624850E-18
   1.50000001E-03     4.84492423E-18
   1.64999999E-03    -5.29454818E-18
   1.79999997E-03     1.46347110E-18
   1.94999995E-03     6.27243448E-18
   2.09999993E-03    -1.37756211E-17
   2.24999990E-03     1.43502568E-17
   2.40000011E-03    -3.80981688E-18
   2.55000009E-03    -1.42132062E-17
   2.70000007E-03     2.98447162E-17
   2.85000005E-03    -2.78859327E-17
   3.00000003E-03     6.63470981E-18
   3.15000000E-03     2.67097414E-17
   3.29999998E-03    -4.14517212E-17
   3.44999996E-03     3.78633223E-17
   3.59999994E-03     6.57853432E-18
   3.74999992E-03    -1.30139068E-17
   3.89999989E-03     3.66506326E-17
   4.05000011E-03     3.30460111E-17
   4.19999985E-03     1.63159358E-17
   4.35000006E-03     2.42224986E-17
   4.49999981E-03     1.72582804E-16
   4.65000002E-03    -1.17033219E-16
   4.80000023E-03     8.02008779E-17
   4.94999997E-03     7.34314369E-17
   5.10000018E-03    -8.51248630E-16
   5.24999993E-03    -4.78360639E-16
   5.40000014E-03    -2.36774889E-15
   5.54999989E-03    -4.88498936E-15
   5.70000010E-03    -7.60272802E-15
   5.84999984E-03    -1.71099944E-14
   6.00000005E-03    -2.79478114E-14
   6.14999980E-03    -4.92578153E-14
   6.30000001E-03    -8.63422289E-14
   6.45000022E-03    -1.38417205E-13
   6.59999996E-03    -2.30128362E-13
   6.75000018E-03    -3.62016162E-13
   6.89999992E-03    -5.59350851E-13
   7.05000013E-03    -8.49746272E-13
   7.19999988E-03    -1.22973604E-12
   7.35000009E-03    -1.73582437E-12
   7.49999983E-03    -2.30931528E-12
   7.65000004E-03    -2.83292552E-12
   7.79999979E-03    -3.04508632E-12
   7.95000046E-03    -2.25751037E-12
   8.10000021E-03     7.09590156E-13
   8.24999996E-03     8.21064917E-12
   8.39999970E-03     2.44811636E-11
   8.55000038E-03     5.67625391E-11
   8.70000012E-03     1.17703070E-10
   8.84999987E-03     2.28229324E-10
   8.99999961E-03     4.22655799E-10
   9.15000029E-03     7.56729013E-10
   9.30000003E-03     1.31853484E-09
   9.44999978E-03     2.24644170E-09
   9.60000046E-03     3.75438569E-09
   9.75000020E-03     6.16789908E-09
   9.89999995E-03     9.97817562E-09
   1.00499997E-02     1.59141500E-08
   1.02000004E-02     2.50460026E-08
   1.03500001E-02     3.89245720E-08
   1.04999999E-02     5.97666130E-08
   1.06499996E-02     9.07041766E-08
   1.08000003E-02     1.36098393E-07
   1.09500000E-02     2.01946392E-07
   1.10999998E-02     2.96379909E-07
   1.12500004E-02     4.30268727E-07
   1.14000002E-02     6.17946000E-07
   1.15499999E-02     8.78017602E-07
   1.16999997E-02     1.23429140E-06
   1.18500004E-02     1.71674628E-06
   1.20000001E-02     2.36251981E-06
   1.21499998E-02     3.21686548E-06
   1.22999996E-02     4.33392597E-06
   1.24500003E-02     5.77731680E-06
   1.26000000E-02     7.62024774E-06
   1.27499998E-02     9.94517995E-06
   1.29000004E-02     1.28428992E-05
   1.30500002E-02     1.64104622E-05
   1.31999999E-02     2.07486883E-05
   1.33499997E-02     2.59583230E-05
   1.35000004E-02     3.21351872E-05
   1.36500001E-02     3.93646988E-05
   1.37999998E-02     4.77150534E-05
   1.39499996E-02     5.72304925E-05
   1.41000003E-02     6.79237201E-05
   1.42500000E-02     7.97690518E-05
   1.43999998E-02     9.26955763E-05
   1.45500004E-02     1.06582673E-04
   1.47000002E-02     1.21255922E-04
   1.48499999E-02     1.36486284E-04
   1.49999997E-02     1.51991830E-04
   1.51500003E-02     1.67441613E-04
   1.53000001E-02     1.82463948E-04
   1.54499998E-02     1.96656110E-04
   1.55999996E-02     2.09598104E-04
   1.57500003E-02     2.20867529E-04
   1.59000009E-02     2.30055026E-04
   1.60499997E-02     2.36783395E-04
   1.62000004E-02     2.40721885E-04
   1.63499992E-02     2.41602291E-04
   1.64999999E-02     2.39231143E-04
   1.66500006E-02     2.33498155E-04
   1.67999994E-02     2.24384130E-04
   1.69500001E-02     2.11959225E-04
   1.71000008E-02     1.96381603E-04
   1.72499996E-02     1.77892027E-04
   1.74000002E-02     1.56799302E-04
   1.75500009E-02     1.33471345E-04
   1.76999997E-02     1.08317596E-04
   1.78500004E-02     8.17717519E-05
   1.79999992E-02     5.42789276E-05
   1.81499999E-02     2.62745743E-05
   1.83000006E-02    -1.82500253E-06
   1.84499994E-02    -2.96350936E-05
   1.86000001E-02    -5.68156975E-05
   1.87500007E-02    -8.30720819E-05
   1.88999996E-02    -1.08163127E-04
   1.90500002E-02    -1.31900219E-04
   1.92000009E-02    -1.54143738E-04
   1.93499997E-02    -1.74804154E-04
   1.95000004E-02    -1.93831918E-04
   1.96499992E-02    -2.11215025E-04
   1.97999999E-02    -2.26972959E-04
   1.99500006E-02    -2.41145492E-04
   2.00999994E-02    -2.53791222E-04
   2.02500001E-02    -2.64980568E-04
   2.04000007E-02    -2.74789345E-04
   2.05499995E-02    -2.83296948E-04
   2.07000002E-02    -2.90579395E-04
   2.08500009E-02    -2.96710990E-04
   2.09999997E-02    -3.01760680E-04
   2.11500004E-02    -3.05789639E-04
   2.12999992E-02    -3.08853982E-04
   2.14499999E-02    -3.11002485E-04
   2.16000006E-02    -3.12276883E-04
   2.17499994E-02    -3.12713557E-04
   2.19000001E-02    -3.12344695E-04
   2.20500007E-02    -3.11197218E-04
   2.21999995E-02    -3.09294788E-04
   2.23500002E-02    -3.06658447E-04
   2.25000009E-02    -3.03306908E-04
   2.26499997E-02    -2.99259875E-04
   2.28000004E-02    -2.94531754E-04
   2.29499992E-02    -2.89139891E-04
   2.30999999E-02    -2.83102272E-04
   2.32500006E-02    -2.76433042E-04
   2.33999994E-02    -2.69150769E-04
   2.35500000E-02    -2.61273672E-04
   2.37000007E-02    -2.52818485E-04
   2.38499995E-02    -2.43805873E-04
   2.40000002E-02    -2.34254825E-04
   2.41500009E-02    -2.24187344E-04
   2.42999997E-02    -2.13625564E-04
   2.44500004E-02    -2.02590396E-04
   2.45999992E-02    -1.91108717E-04
   2.47499999E-02    -1.79203431E-04
   2.49000005E-02    -1.66900471E-04
   2.50499994E-02    -1.54228605E-04
   2.52000000E-02    -1.41213823E-04
   2.53500007E-02    -1.27885316E-04
   2.54999995E-02    -1.14272370E-04
   2.56500002E-02    -1.00405960E-04
   2.58000009E-02    -8.63181704E-05
   2.59499997E-02    -7.20377575E-05
   2.61000004E-02    -5.75988888E-05
   2.62499992E-02    -4.30347318E-05
   2.63999999E-02    -2.83763729E-05
   2.65500005E-02    -1.36586777E-05
   2.66999993E-02     1.08626648E-06
   2.68500000E-02     1.58258408E-05
   2.70000007E-02     3.05272588E-05
   2.71499995E-02     4.51575979E-05
   2.73000002E-02     5.96839200E-05
   2.74500009E-02     7.40773248E-05
   2.75999997E-02     8.83053290E-05
   2.77500004E-02     1.02336206E-04
   2.78999992E-02     1.16141404E-04
   2.80499998E-02     1.29690074E-04
   2.82000005E-02     1.42953402E-04
   2.83499993E-02     1.55902700E-04
   2.85000000E-02     1.68509796E-04
   2.86500007E-02     1.80746851E-04
   2.87999995E-02     1.92585532E-04
   2.89500002E-02     2.04002150E-04
   2.91000009E-02     2.14969521E-04
   2.92499997E-02     2.25461743E-04
   2.94000003E-02     2.35457483E-04
   2.95499992E-02     2.44932249E-04
   2.96999998E-02     2.53864884E-04
   2.98500005E-02     2.62235350E-04
   2.99999993E-02     2.70024029E-04
   3.01500000E-02     2.77214625E-04
   3.03000007E-02     2.83789122E-04
   3.04499995E-02     2.89735181E-04
   3.06000002E-02     2.95039208E-04
   3.07500008E-02     2.99687585E-04
   3.08999997E-02     3.03674547E-04
   3.10500003E-02     3.06989794E-04
   3.11999992E-02     3.09625204E-04
   3.13500017E-02     3.11578711E-04
   3.15000005E-02     3.12844291E-04
   3.16499993E-02     3.13420926E-04
   3.18000019E-02     3.13306955E-04
   3.19500007E-02     3.12503020E-04
   3.20999995E-02     3.11012176E-04
   3.22499983E-02     3.08834482E-04
   3.24000008E-02     3.05977155E-04
   3.25499997E-02     3.02446540E-04
   3.26999985E-02     2.98247411E-04
   3.28500010E-02     2.93389894E-04
   3.29999998E-02     2.87885166E-04
   3.31499986E-02     2.81744113E-04
   3.33000012E-02     2.74980062E-04
   3.34500000E-02     2.67607014E-04
   3.35999988E-02     2.59642344E-04
   3.37500013E-02     2.51104037E-04
   3.39000002E-02     2.42008595E-04
   3.40499990E-02     2.32378807E-04
   3.42000015E-02     2.22236427E-04
   3.43500003E-02     2.11601437E-04
   3.44999991E-02     2.00499693E-04
   3.46500017E-02     1.88956838E-04
   3.48000005E-02     1.76997390E-04
   3.49499993E-02     1.64647587E-04
   3.51000018E-02     1.51935412E-04
   3.52500007E-02     1.38890944E-04
   3.53999995E-02     1.25540610E-04
   3.55499983E-02     1.11913294E-04
   3.57000008E-02     9.80426194E-05
   3.58499996E-02     8.39561544E-05
   3.59999985E-02     6.96834395E-05
   3.61500010E-02     5.52595338E-05
   3.62999998E-02     4.07143707E-05
   3.64499986E-02     2.60782454E-05
   3.66000012E-02     1.13848791E-05
   3.67500000E-02    -3.33296134E-06
   3.68999988E-02    -1.80431416E-05
   3.70500013E-02    -3.27140406E-05
   3.72000001E-02    -4.73121072E-05
   3.73499990E-02    -6.18047779E-05
   3.75000015E-02    -7.61617630E-05
   3.76500003E-02    -9.03492473E-05
   3.77999991E-02    -1.04335682E-04
   3.79500017E-02    -1.18092255E-04
   3.81000005E-02    -1.31586450E-04
   3.82499993E-02    -1.44788559E-04
   3.84000018E-02    -1.57671064E-04
   3.85500006E-02    -1.70203712E-04
   3.86999995E-02    -1.82359247E-04
   3.88499983E-02    -1.94112319E-04
   3.90000008E-02    -2.05435790E-04
   3.91499996E-02    -2.16304936E-04
   3.92999984E-02    -2.26696226E-04
   3.94500010E-02    -2.36586871E-04
   3.95999998E-02    -2.45954812E-04
   3.97499986E-02    -2.54778832E-04
   3.99000011E-02    -2.63041205E-04
   4.00500000E-02    -2.70722667E-04
   4.01999988E-02    -2.77804123E-04
   4.03500013E-02    -2.84273730E-04
   4.05000001E-02    -2.90115160E-04
   4.06499989E-02    -2.95313832E-04
   4.08000015E-02    -2.99861043E-04
   4.09500003E-02    -3.03744746E-04
   4.10999991E-02    -3.06956674E-04
   4.12500016E-02    -3.09490075E-04
   4.14000005E-02    -3.11338546E-04
   4.15499993E-02    -3.12501070E-04
   4.17000018E-02    -3.12971300E-04
   4.18500006E-02    -3.12749791E-04
   4.19999994E-02    -3.11839627E-04
   4.21499982E-02    -3.10239237E-04
   4.23000008E-02    -3.07955575E-04
   4.24499996E-02    -3.04992456E-04
   4.25999984E-02    -3.01355263E-04
   4.27500010E-02    -2.97055725E-04
   4.28999998E-02    -2.92099809E-04
   4.30499986E-02    -2.86500523E-04
   4.32000011E-02    -2.80269887E-04
   4.33499999E-02    -2.73418962E-04
   4.34999987E-02    -2.65967567E-04
   4.36500013E-02    -2.57927109E-04
   4.38000001E-02    -2.49317643E-04
   4.39499989E-02    -2.40158857E-04
   4.41000015E-02    -2.30466248E-04
   4.42500003E-02    -2.20267204E-04
   4.43999991E-02    -2.09580496E-04
   4.45500016E-02    -1.98429116E-04
   4.47000004E-02    -1.86841076E-04
   4.48499992E-02    -1.74836707E-04
   4.50000018E-02    -1.62449927E-04
   4.51500006E-02    -1.49703250E-04
   4.52999994E-02    -1.36623625E-04
   4.54499982E-02    -1.23247781E-04
   4.56000008E-02    -1.09596236E-04
   4.57499996E-02    -9.57064767E-05
   4.58999984E-02    -8.16077736E-05
   4.60500009E-02    -6.73254835E-05
   4.61999997E-02    -5.29008394E-05
   4.63499986E-02    -3.83559309E-05
   4.65000011E-02    -2.37272725E-05
   4.66499999E-02    -9.04907847E-06
   4.67999987E-02     5.65735763E-06
   4.69500013E-02     2.03486416E-05
   4.71000001E-02     3.50005830E-05
   4.72499989E-02     4.95819986E-05
   4.74000014E-02     6.40544895E-05
   4.75500003E-02     7.83998839E-05
   4.76999991E-02     9.25758359E-05
   4.78500016E-02     1.06555730E-04
   4.80000004E-02     1.20315606E-04
   4.81499992E-02     1.33811962E-04
   4.83000018E-02     1.47028142E-04
   4.84500006E-02     1.59929579E-04
   4.85999994E-02     1.72483196E-04
   4.87499982E-02     1.84670498E-04
   4.89000008E-02     1.96451379E-04
   4.90499996E-02     2.07808305E-04
   4.91999984E-02     2.18713802E-04
   4.93500009E-02     2.29132769E-04
   4.94999997E-02     2.39055371E-04
   4.96499985E-02     2.48446479E-04
   4.98000011E-02     2.57285486E-04
   4.99499999E-02     2.65560346E-04
   5.00999987E-02     2.73239013E-04
   5.02500013E-02     2.80312030E-04
   5.04000001E-02     2.86760187E-04
   5.05499989E-02     2.92566256E-04
   5.07000014E-02     2.97723571E-04
   5.08500002E-02     3.02211731E-04
   5.09999990E-02     3.06026923E-04
   5.11500016E-02     3.09161318E-04
   5.13000004E-02     3.11599870E-04
   5.14499992E-02     3.13347875E-04
   5.16000018E-02     3.14397330E-04
   5.17500006E-02     3.14742356E-04
   5.18999994E-02     3.14388948E-04
   5.20499982E-02     3.13334516E-04
   5.22000007E-02     3.11581884E-04
   5.23499995E-02     3.09136114E-04
   5.24999984E-02     3.06001341E-04
   5.26500009E-02     3.02187225E-04
   5.27999997E-02     2.97699677E-04
   5.29499985E-02     2.92546931E-04
   5.31000011E-02     2.86748254E-04
   5.32499999E-02     2.80310051E-04
   5.33999987E-02     2.73244485E-04
   5.35500012E-02     2.65577866E-04
   5.37000000E-02     2.57318810E-04
   5.38499989E-02     2.48486322E-04
   5.40000014E-02     2.39106987E-04
   5.41500002E-02     2.29195517E-04
   5.42999990E-02     2.18779838E-04
   5.44500016E-02     2.07877776E-04
   5.46000004E-02     1.96516572E-04
   5.47499992E-02     1.84729637E-04
   5.49000017E-02     1.72526736E-04
   5.50500005E-02     1.59948322E-04
   5.51999994E-02     1.47023718E-04
   5.53499982E-02     1.33766938E-04
   5.55000007E-02     1.20222729E-04
   5.56499995E-02     1.06413412E-04
   5.57999983E-02     9.23700936E-05
   5.59500009E-02     7.81263007E-05
   5.60999997E-02     6.37028643E-05
   5.62499985E-02     4.91489081E-05
   5.64000010E-02     3.44822656E-05
   5.65499999E-02     1.97332902E-05
   5.66999987E-02     4.95169297E-06
   5.68500012E-02    -9.85101269E-06
   5.70000000E-02    -2.46312375E-05
   5.71499988E-02    -3.93543887E-05
   5.73000014E-02    -5.39959510E-05
   5.74500002E-02    -6.85116174E-05
   5.75999990E-02    -8.28852426E-05
   5.77500015E-02    -9.70709661E-05
   5.79000004E-02    -1.11036839E-04
   5.80499992E-02    -1.24767466E-04
   5.82000017E-02    -1.38209885E-04
   5.83500005E-02    -1.51350236E-04
   5.84999993E-02    -1.64157260E-04
   5.86499982E-02    -1.76591944E-04
   5.88000007E-02    -1.88642720E-04
   5.89499995E-02    -2.00266426E-04
   5.90999983E-02    -2.11450766E-04
   5.92500009E-02    -2.22169707E-04
   5.93999997E-02    -2.32386185E-04
   5.95499985E-02    -2.42101203E-04
   5.97000010E-02    -2.51272664E-04
   5.98499998E-02    -2.59888824E-04
   5.99999987E-02    -2.67941330E-04
   6.01500012E-02    -2.75389699E-04
   6.03000000E-02    -2.82240799E-04
   6.04499988E-02    -2.88466923E-04
   6.06000014E-02    -2.94051890E-04
   6.07500002E-02    -2.99000065E-04
   6.08999990E-02    -3.03276174E-04
   6.10500015E-02    -3.06892820E-04
   6.12000003E-02    -3.09831579E-04
   6.13499992E-02    -3.12075485E-04
   6.15000017E-02    -3.13646829E-04
   6.16500005E-02    -3.14512465E-04
   6.17999993E-02    -3.14683741E-04
   6.19499981E-02    -3.14168108E-04
   6.21000007E-02    -3.12943739E-04
   6.22499995E-02    -3.11037962E-04
   6.23999983E-02    -3.08437535E-04
   6.25500008E-02    -3.05153226E-04
   6.27000034E-02    -3.01205087E-04
   6.28499985E-02    -2.96574406E-04
   6.30000010E-02    -2.91299628E-04
   6.31500036E-02    -2.85383285E-04
   6.32999986E-02    -2.78826716E-04
   6.34500012E-02    -2.71669531E-04
   6.36000037E-02    -2.63904978E-04
   6.37499988E-02    -2.55562947E-04
   6.39000013E-02    -2.46665295E-04
   6.40499964E-02    -2.37216591E-04
   6.41999990E-02    -2.27261131E-04
   6.43500015E-02    -2.16803135E-04
   6.44999966E-02    -2.05868098E-04
   6.46499991E-02    -1.94496170E-04
   6.48000017E-02    -1.82693577E-04
   6.49499968E-02    -1.70498141E-04
   6.50999993E-02    -1.57935166E-04
   6.52500018E-02    -1.45028360E-04
   6.53999969E-02    -1.31816691E-04
   6.55499995E-02    -1.18315562E-04
   6.57000020E-02    -1.04562350E-04
   6.58499971E-02    -9.05918932E-05
   6.59999996E-02    -7.64207580E-05
   6.61500022E-02    -6.20877254E-05
   6.62999973E-02    -4.76245041E-05
   6.64499998E-02    -3.30530456E-05
   6.66000023E-02    -1.84069067E-05
   6.67499974E-02    -3.71640954E-06
   6.69000000E-02     1.09923012E-05
   6.70500025E-02     2.56894946E-05
   6.71999976E-02     4.03499871E-05
   6.73500001E-02     5.49421602E-05
   6.75000027E-02     6.94363698E-05
   6.76499978E-02     8.38154301E-05
   6.78000003E-02     9.80402328E-05
   6.79500028E-02     1.12082365E-04
   6.80999979E-02     1.25925173E-04
   6.82500005E-02     1.39524825E-04
   6.84000030E-02     1.52859051E-04
   6.85499981E-02     1.65898891E-04
   6.87000006E-02     1.78604605E-04
   6.88500032E-02     1.90958031E-04
   6.89999983E-02     2.02915471E-04
   6.91500008E-02     2.14451182E-04
   6.93000033E-02     2.25540338E-04
   6.94499984E-02     2.36135093E-04
   6.96000010E-02     2.46225012E-04
   6.97500035E-02     2.55772960E-04
   6.98999986E-02     2.64745293E-04
   7.00500011E-02     2.73134618E-04
   7.02000037E-02     2.80897249E-04
   7.03499988E-02     2.88023381E-04
   7.05000013E-02     2.94496393E-04
   7.06499964E-02     3.00285174E-04
   7.07999989E-02     3.05393187E-04
   7.09500015E-02     3.09791561E-04
   7.10999966E-02     3.13477125E-04
   7.12499991E-02     3.16449063E-04
   7.14000016E-02     3.18681676E-04
   7.15499967E-02     3.20194376E-04
   7.16999993E-02     3.20972031E-04
   7.18500018E-02     3.21008643E-04
   7.19999969E-02     3.20326450E-04
   7.21499994E-02     3.18909035E-04
   7.23000020E-02     3.16772232E-04
   7.24499971E-02     3.13921570E-04
   7.25999996E-02     3.10358562E-04
   7.27500021E-02     3.06107802E-04
   7.28999972E-02     3.01162043E-04
   7.30499998E-02     2.95545673E-04
   7.32000023E-02     2.89277028E-04
   7.33499974E-02     2.82352412E-04
   7.34999999E-02     2.74806953E-04
   7.36500025E-02     2.66650954E-04
   7.37999976E-02     2.57898966E-04
   7.39500001E-02     2.48581026E-04
   7.41000026E-02     2.38706882E-04
   7.42499977E-02     2.28307894E-04
   7.44000003E-02     2.17403402E-04
   7.45500028E-02     2.06013196E-04
   7.46999979E-02     1.94175431E-04
   7.48500004E-02     1.81903408E-04
   7.50000030E-02     1.69229083E-04
   7.51499981E-02     1.56184993E-04
   7.53000006E-02     1.42790726E-04
   7.54500031E-02     1.29086227E-04
   7.55999982E-02     1.15095776E-04
   7.57500008E-02     1.00848891E-04
   7.59000033E-02     8.63843525E-05
   7.60499984E-02     7.17260773E-05
   7.62000009E-02     5.69116528E-05
   7.63500035E-02     4.19739299E-05
   7.64999986E-02     2.69425527E-05
   7.66500011E-02     1.18545349E-05
   7.68000036E-02    -3.26120789E-06
   7.69499987E-02    -1.83666052E-05
   7.71000013E-02    -3.34284923E-05
   7.72499964E-02    -4.84200245E-05
   7.73999989E-02    -6.33011150E-05
   7.75500014E-02    -7.80400660E-05
   7.76999965E-02    -9.26078865E-05
   7.78499991E-02    -1.06970037E-04
   7.80000016E-02    -1.21093959E-04
   7.81499967E-02    -1.34947943E-04
   7.82999992E-02    -1.48504041E-04
   7.84500018E-02    -1.61729113E-04
   7.85999969E-02    -1.74592016E-04
   7.87499994E-02    -1.87067548E-04
   7.89000019E-02    -1.99123169E-04
   7.90499970E-02    -2.10730519E-04
   7.91999996E-02    -2.21863884E-04
   7.93500021E-02    -2.32496692E-04
   7.94999972E-02    -2.42602313E-04
   7.96499997E-02    -2.52151978E-04
   7.98000023E-02    -2.61126523E-04
   7.99499974E-02    -2.69502692E-04
   8.00999999E-02    -2.77255109E-04
   8.02500024E-02    -2.84368318E-04
   8.03999975E-02    -2.90821510E-04
   8.05500001E-02    -2.96597835E-04
   8.07000026E-02    -3.01687629E-04
   8.08499977E-02    -3.06074391E-04
   8.10000002E-02    -3.09753872E-04
   8.11500028E-02    -3.12719028E-04
   8.12999979E-02    -3.14963603E-04
   8.14500004E-02    -3.16492748E-04
   8.16000029E-02    -3.17306025E-04
   8.17499980E-02    -3.17410886E-04
   8.19000006E-02    -3.16815393E-04
   8.20500031E-02    -3.15525220E-04
   8.21999982E-02    -3.13559955E-04
   8.23500007E-02    -3.10927251E-04
   8.25000033E-02    -3.07641138E-04
   8.26499984E-02    -3.03724577E-04
   8.28000009E-02    -2.99184554E-04
   8.29500034E-02    -2.94038298E-04
   8.30999985E-02    -2.88304756E-04
   8.32500011E-02    -2.81995890E-04
   8.34000036E-02    -2.75128754E-04
   8.35499987E-02    -2.67713011E-04
   8.37000012E-02    -2.59764201E-04
   8.38499963E-02    -2.51298392E-04
   8.39999989E-02    -2.42321854E-04
   8.41500014E-02    -2.32853490E-04
   8.42999965E-02    -2.22907736E-04
   8.44499990E-02    -2.12491621E-04
   8.46000016E-02    -2.01626375E-04
   8.47499967E-02    -1.90328094E-04
   8.48999992E-02    -1.78611779E-04
   8.50500017E-02    -1.66500817E-04
   8.51999968E-02    -1.54012436E-04
   8.53499994E-02    -1.41171142E-04
   8.55000019E-02    -1.28002474E-04
   8.56499970E-02    -1.14529219E-04
   8.57999995E-02    -1.00784702E-04
   8.59500021E-02    -8.67948111E-05
   8.60999972E-02    -7.25873979E-05
   8.62499997E-02    -5.81996683E-05
   8.64000022E-02    -4.36598166E-05
   8.65499973E-02    -2.90030239E-05
   8.66999999E-02    -1.42652370E-05
   8.68500024E-02     5.25018152E-07
   8.69999975E-02     1.53285491E-05
   8.71500000E-02     3.01120526E-05
   8.73000026E-02     4.48428109E-05
   8.74499977E-02     5.94821468E-05
   8.76000002E-02     7.40014293E-05
   8.77500027E-02     8.83645698E-05
   8.78999978E-02     1.02537408E-04
   8.80500004E-02     1.16491792E-04
   8.82000029E-02     1.30189743E-04
   8.83499980E-02     1.43603276E-04