  -3.29999998E-02    -1.00000002E-24
  -3.28500010E-02    -1.00000022E-24
  -3.26999985E-02    -1.00000022E-24
  -3.25499997E-02    -1.00000012E-24
  -3.24000008E-02    -9.99999822E-25
  -3.22499983E-02    -1.00000012E-24
  -3.20999995E-02    -1.00000071E-24
  -3.19500007E-02    -1.00000071E-24
  -3.18000019E-02    -9.99999033E-25
  -3.16499993E-02    -9.99999132E-25
  -3.15000005E-02    -1.00000248E-24
  -3.13500017E-02    -9.99999132E-25
  -3.11999992E-02    -9.99998935E-25
  -3.10500003E-02    -1.00000170E-24
  -3.08999997E-02    -9.99999921E-25
  -3.07500008E-02    -9.99999625E-25
  -3.06000002E-02    -9.99999724E-25
  -3.04499995E-02    -1.00000051E-24
  -3.03000007E-02    -1.00000022E-24
  -3.01500000E-02    -1.00000012E-24
  -2.99999993E-02    -1.00000051E-24
  -2.98500005E-02    -9.99998343E-25
  -2.96999998E-02    -1.00000120E-24
  -2.95499992E-02    -1.00000239E-24
  -2.94000003E-02    -9.99998146E-25
  -2.92499997E-02    -9.99998442E-25
  -2.91000009E-02    -1.00000170E-24
  -2.89500002E-02    -9.99999428E-25
  -2.87999995E-02    -9.99999625E-25
  -2.86500007E-02    -1.00000022E-24
  -2.85000000E-02    -1.00000002E-24
  -2.83499993E-02    -1.00000002E-24
  -2.82000005E-02    -1.00000002E-24
  -2.80499998E-02    -1.00000357E-24
  -2.78999992E-02    -9.99999231E-25
  -2.77500004E-02    -9.99997752E-25
  -2.75999997E-02    -1.00000061E-24
  -2.74500009E-02    -9.99999921E-25
  -2.73000002E-02    -1.00000012E-24
  -2.71499995E-02    -9.99998935E-25
  -2.70000007E-02    -1.00000189E-24
  -2.68500000E-02    -1.00000032E-24
  -2.66999993E-02    -9.99997160E-25
  -2.65500005E-02    -1.00000219E-24
  -2.63999999E-02    -1.00000120E-24
  -2.62499992E-02    -9.99999822E-25
  -2.61000004E-02    -9.99998442E-25
  -2.59499997E-02    -1.00000101E-24
  -2.58000009E-02    -1.00000091E-24
  -2.56500002E-02    -9.99998047E-25
  -2.54999995E-02    -1.00000327E-24
  -2.53500007E-02    -9.99999724E-25
  -2.52000000E-02    -9.99996371E-25
  -2.50499994E-02    -1.00000012E-24
  -2.49000005E-02    -1.00000189E-24
  -2.47499999E-02    -1.00000209E-24
  -2.45999992E-02    -9.99996765E-25
  -2.44500004E-02    -9.99999132E-25
  -2.42999997E-02    -1.00000465E-24
  -2.41500009E-02    -9.99998442E-25
  -2.40000002E-02    -1.00000051E-24
  -2.38499995E-02    -9.99999921E-25
  -2.37000007E-02    -9.99999724E-25
  -2.35500000E-02    -1.00000002E-24
  -2.33999994E-02    -9.99997357E-25
  -2.32500006E-02    -1.00000308E-24
  -2.30999999E-02    -9.99998146E-25
  -2.29499992E-02    -9.99999724E-25
  -2.28000004E-02    -1.00000406E-24
  -2.26499997E-02    -9.99996963E-25
  -2.25000009E-02    -1.00000061E-24
  -2.23500002E-02    -9.99998442E-25
  -2.21999995E-02    -1.00000239E-24
  -2.20500007E-02    -1.00000347E-24
  -2.19000001E-02    -9.99993413E-25
  -2.17499994E-02    -1.00000189E-24
  -2.16000006E-02    -1.00000179E-24
  -2.14499999E-02    -1.00000002E-24
  -2.12999992E-02    -1.00000179E-24
  -2.11500004E-02    -9.99995779E-25
  -2.09999997E-02    -1.00000140E-24
  -2.08500009E-02    -9.99999724E-25
  -2.07000002E-02    -9.99999625E-25
  -2.05499995E-02    -1.00000456E-24
  -2.04000007E-02    -9.99995484E-25
  -2.02500001E-02    -1.00000041E-24
  -2.00999994E-02    -1.00000229E-24
  -1.99500006E-02    -1.00000022E-24
  -1.97999999E-02    -1.00000110E-24
  -1.96499992E-02    -9.99994892E-25
  -1.95000004E-02    -1.00000268E-24
  -1.93499997E-02    -1.00000012E-24
  -1.92000009E-02    -9.99997554E-25
  -1.90500002E-02    -1.00000387E-24
  -1.88999996E-02    -9.99998343E-25
  -1.87500007E-02    -1.00000239E-24
  -1.86000001E-02    -9.99999724E-25
  -1.84499994E-02    -9.99998245E-25
  -1.83000006E-02    -1.00000416E-24
  -1.81499999E-02    -9.99995681E-25
  -1.79999992E-02    -1.00000150E-24
  -1.78500004E-02    -1.00000160E-24
  -1.76999997E-02    -9.99995089E-25
  -1.75500009E-02    -1.00000436E-24
  -1.74000002E-02    -9.99998639E-25
  -1.72499996E-02    -1.00000101E-24
  -1.71000008E-02    -1.00000120E-24
  -1.69500001E-02    -9.99995878E-25
  -1.67999994E-02    -1.00000485E-24
  -1.66500006E-02    -9.99997850E-25
  -1.64999999E-02    -9.99998738E-25
  -1.63499992E-02    -1.00000456E-24
  -1.62000004E-02    -9.99996963E-25
  -1.60499997E-02    -1.00000012E-24
  -1.59000009E-02    -9.99999329E-25
  -1.57500003E-02    -1.00000002E-24
  -1.55999996E-02    -1.00000298E-24
  -1.54499998E-02    -9.99995681E-25
  -1.53000001E-02    -1.00000101E-24
  -1.51500003E-02    -1.00000022E-24
  -1.49999997E-02    -9.99998738E-25
  -1.48499999E-02    -1.00000357E-24
  -1.47000002E-02    -9.99999921E-25
  -1.45500004E-02    -9.99997850E-25
  -1.43999998E-02    -9.99997259E-25
  -1.42500000E-02    -1.00000258E-24
  -1.41000003E-02    -1.00000317E-24
  -1.39499996E-02    -9.99995681E-25
  -1.37999998E-02    -9.99998935E-25
  -1.36500001E-02    -1.00000101E-24
  -1.35000004E-02    -1.00000071E-24
  -1.33499997E-02    -9.99999921E-25
  -1.31999999E-02    -1.00000051E-24
  -1.30500002E-02    -1.00000170E-24
  -1.29000004E-02    -9.99995681E-25
  -1.27499998E-02    -1.00000189E-24
  -1.26000000E-02    -1.00000416E-24
  -1.24500003E-02    -9.99995779E-25
  -1.22999996E-02    -9.99999822E-25
  -1.21499998E-02    -9.99999921E-25
  -1.20000001E-02    -1.00000160E-24
  -1.18500004E-02    -9.99999428E-25
  -1.16999997E-02    -9.99996864E-25
  -1.15499999E-02    -1.00000564E-24
  -1.14000002E-02    -9.99997160E-25
  -1.12500004E-02    -9.99997653E-25
  -1.10999998E-02    -1.00000564E-24
  -1.09500000E-02    -9.99998738E-25
  -1.08000003E-02    -1.00000051E-24
  -1.06499996E-02    -9.99998738E-25
  -1.04999999E-02    -9.99999231E-25
  -1.03500001E-02    -1.00000219E-24
  -1.02000004E-02    -9.99995977E-25
  -1.00499997E-02    -1.00000209E-24
  -9.89999995E-03    -1.00000022E-24
  -9.75000020E-03    -9.99996470E-25
  -9.60000046E-03    -1.00000357E-24
  -9.44999978E-03    -1.00000032E-24
  -9.30000003E-03    -9.99999428E-25
  -9.15000029E-03    -9.99998540E-25
  -8.99999961E-03    -9.99999033E-25
  -8.84999987E-03    -1.00000505E-24
  -8.70000012E-03    -9.99998442E-25
  -8.55000038E-03    -9.99996864E-25
  -8.39999970E-03    -1.00000179E-24
  -8.24999996E-03    -1.00000081E-24
  -8.10000021E-03    -1.00000022E-24
  -7.95000046E-03    -9.99997850E-25
  -7.79999979E-03    -1.00000002E-24
  -7.65000004E-03    -1.00000298E-24
  -7.49999983E-03    -9.99995484E-25
  -7.35000009E-03    -1.00000672E-24
  -7.19999988E-03    -9.99995582E-25
  -7.05000013E-03    -9.99996864E-25
  -6.89999992E-03    -1.00001373E-24
  -6.75000018E-03    -9.99962351E-25
  -6.59999996E-03    -1.00009261E-24
  -6.45000022E-03    -9.99817891E-25
  -6.30000001E-03    -1.00033243E-24
  -6.14999980E-03    -9.99352266E-25
  -6.00000005E-03    -1.00131742E-24
  -5.84999984E-03    -9.97454464E-25
  -5.70000010E-03    -1.00431548E-24
  -5.54999989E-03    -9.94203075E-25
  -5.40000014E-03    -1.00433313E-24
  -5.24999993E-03    -1.00556386E-24
  -5.10000018E-03    -9.68041687E-25
  -4.94999997E-03    -1.08246941E-24
  -4.80000023E-03    -8.42623847E-25
  -4.65000002E-03    -1.24070919E-24
  -4.49999981E-03    -7.04462501E-25
  -4.35000006E-03    -1.26992534E-24
  -4.19999985E-03    -8.97410927E-25
  -4.05000011E-03    -7.04077340E-25
  -3.89999989E-03    -2.08218771E-24
  -3.74999992E-03     1.48584062E-24
  -3.59999994E-03    -5.68234102E-24
  -3.44999996E-03     6.34740756E-24
  -3.29999998E-03    -9.93529289E-24
  -3.15000000E-03     5.31806793E-24
  -3.00000003E-03     3.16459046E-24
  -2.85000005E-03    -2.37167182E-23
  -2.70000007E-03     3.89440119E-23
  -2.55000009E-03    -3.88114075E-23
  -2.40000011E-03     4.97147084E-24
  -2.24999990E-03     3.38370683E-23
  -2.09999993E-03    -1.67356147E-23
  -1.94999995E-03    -1.57256569E-22
  -1.79999997E-03     4.81164207E-22
  -1.64999999E-03    -7.34622263E-22
  -1.50000001E-03     4.45475332E-22
  -1.35000004E-03     8.37055384E-22
  -1.20000006E-03    -2.86416901E-21
  -1.04999996E-03     4.01081946E-21
  -8.99999985E-04    -2.12914230E-21
  -7.50000007E-04    -3.47627580E-21
  -6.00000028E-04     9.91188879E-21
  -4.49999992E-04    -9.88332521E-21
  -3.00000014E-04    -2.46586418E-21
  -1.50000007E-04     2.03967811E-20
  -6.93889390E-18    -2.00074408E-20
   1.50000007E-04    -3.16103064E-20
   3.00000014E-04     1.38190034E-19
   4.49999992E-04    -2.20428822E-19
   6.00000028E-04     1.22804655E-19
   7.50000007E-04     2.85964196E-19
   8.99999985E-04    -9.43001615E-19
   1.04999996E-03     1.40323550E-18
   1.20000006E-03    -9.61416206E-19
   1.35000004E-03    -8.97616799E-19
   1.50000001E-03     3.80025054E-18
   1.64999999E-03    -5.94509430E-18
   1.79999997E-03     4.67273666E-18
   1.94999995E-03     1.50681950E-18
   2.09999993E-03    -1.11175374E-17
   2.24999990E-03     1.84841912E-17
   2.40000011E-03    -1.58663763E-17
   2.55000009E-03     1.83055070E-20
   2.70000007E-03     2.55596030E-17
   2.85000005E-03    -4.51157409E-17
   3.00000003E-03     4.28361270E-17
   3.15000000E-03    -6.40092872E-18
   3.29999998E-03    -4.17373830E-17
   3.44999996E-03     9.39565738E-17
   3.59999994E-03    -8.17048775E-17
   3.74999992E-03     4.97678840E-17
   3.89999989E-03     6.95468445E-17
   4.05000011E-03    -1.02350181E-16
   4.19999985E-03     2.10817276E-16
   4.35000006E-03    -4.90239641E-17
   4.49999981E-03     9.66244100E-17
   4.65000002E-03     2.06551843E-16
   4.80000023E-03    -1.78966256E-16
   4.94999997E-03     2.64317981E-16
   5.10000018E-03    -5.70760446E-16
   5.24999993E-03    -7.82144294E-16
   5.40000014E-03    -1.77889180E-15
   5.54999989E-03    -5.00523923E-15
   5.70000010E-03    -7.77729050E-15
   5.84999984E-03    -1.69768289E-14
   6.00000005E-03    -2.98363019E-14
   6.14999980E-03    -5.15378755E-14
   6.30000001E-03    -9.23867170E-14
   6.45000022E-03    -1.50159141E-13
   6.59999996E-03    -2.49742880E-13
   6.75000018E-03    -4.00616877E-13
   6.89999992E-03    -6.22071567E-13
   7.05000013E-03    -9.57627315E-13
   7.19999988E-03    -1.41139552E-12
   7.35000009E-03    -2.02684983E-12
   7.49999983E-03    -2.78318904E-12
   7.65000004E-03    -3.57496259E-12
   7.79999979E-03    -4.19617422E-12
   7.95000046E-03    -4.01884992E-12
   8.10000021E-03    -1.92783506E-12
   8.24999996E-03     4.30863982E-12
   8.39999970E-03     1.88058614E-11
   8.55000038E-03     4.86550626E-11
   8.70000012E-03     1.06351407E-10
   8.84999987E-03     2.12641196E-10
   8.99999961E-03     4.01847722E-10
   9.15000029E-03     7.29673988E-10
   9.30000003E-03     1.28460398E-09
   9.44999978E-03     2.20606333E-09
   9.60000046E-03     3.70938791E-09
   9.75000020E-03     6.12378193E-09
   9.89999995E-03     9.94527127E-09
   1.00499997E-02     1.59113487E-08
   1.02000004E-02     2.51056456E-08
   1.03500001E-02     3.90975998E-08
   1.04999999E-02     6.01338144E-08
   1.06499996E-02     9.13864397E-08
   1.08000003E-02     1.37273886E-07
   1.09500000E-02     2.03873711E-07
   1.10999998E-02     2.99423220E-07
   1.12500004E-02     4.34934265E-07
   1.14000002E-02     6.24925860E-07
   1.15499999E-02     8.88242994E-07
   1.16999997E-02     1.24899270E-06
   1.18500004E-02     1.73752892E-06
   1.20000001E-02     2.39144538E-06
   1.21499998E-02     3.25654310E-06
   1.22999996E-02     4.38761708E-06
   1.24500003E-02     5.84901136E-06
   1.26000000E-02     7.71479517E-06
   1.27499998E-02     1.00683665E-05
   1.29000004E-02     1.30014650E-05
   1.30500002E-02     1.66122718E-05
   1.31999999E-02     2.10026137E-05
   1.33499997E-02     2.62742160E-05
   1.35000004E-02     3.25239307E-05
   1.36500001E-02     3.98377852E-05
   1.37999998E-02     4.82845971E-05
   1.39499996E-02     5.79087537E-05
   1.41000003E-02     6.87227366E-05
   1.42500000E-02     8.07001561E-05
   1.43999998E-02     9.37690202E-05
   1.45500004E-02     1.07806758E-04
   1.47000002E-02     1.22636484E-04
   1.48499999E-02     1.38026371E-04
   1.49999997E-02     1.53690678E-04
   1.51500003E-02     1.69294421E-04
   1.53000001E-02     1.84461358E-04
   1.54499998E-02     1.98784226E-04
   1.55999996E-02     2.11837701E-04
   1.57500003E-02     2.23194453E-04
   1.59000009E-02     2.32441205E-04
   1.60499997E-02     2.39196233E-04
   1.62000004E-02     2.43125047E-04
   1.63499992E-02     2.43956543E-04
   1.64999999E-02     2.41495742E-04
   1.66500006E-02     2.35632120E-04
   1.67999994E-02     2.26345248E-04
   1.69500001E-02     2.13707346E-04
   1.71000008E-02     1.97879432E-04
   1.72499996E-02     1.79103852E-04
   1.74000002E-02     1.57694725E-04
   1.75500009E-02     1.34024638E-04
   1.76999997E-02     1.08506967E-04
   1.78500004E-02     8.15816020E-05
   1.79999992E-02     5.36983171E-05
   1.81499999E-02     2.52990048E-05
   1.83000006E-02    -3.19494484E-06
   1.84499994E-02    -3.13956079E-05
   1.86000001E-02    -5.89567535E-05
   1.87500007E-02    -8.55810940E-05
   1.88999996E-02    -1.11024216E-04
   1.90500002E-02    -1.35093142E-04
   1.92000009E-02    -1.57648246E-04
   1.93499997E-02    -1.78597402E-04
   1.95000004E-02    -1.97890171E-04
   1.96499992E-02    -2.15514039E-04
   1.97999999E-02    -2.31486440E-04
   1.99500006E-02    -2.45848816E-04
   2.00999994E-02    -2.58659711E-04
   2.02500001E-02    -2.69989163E-04
   2.04000007E-02    -2.79913569E-04
   2.05499995E-02    -2.88512179E-04
   2.07000002E-02    -2.95863021E-04
   2.08500009E-02    -3.02039232E-04
   2.09999997E-02    -3.07110779E-04
   2.11500004E-02    -3.11140466E-04
   2.12999992E-02    -3.14182980E-04
   2.14499999E-02    -3.16288468E-04
   2.16000006E-02    -3.17499042E-04
   2.17499994E-02    -3.17852275E-04
   2.19000001E-02    -3.17379454E-04
   2.20500007E-02    -3.16107558E-04
   2.21999995E-02    -3.14063276E-04
   2.23500002E-02    -3.11265612E-04
   2.25000009E-02    -3.07734445E-04
   2.26499997E-02    -3.03489593E-04
   2.28000004E-02    -2.98547558E-04
   2.29499992E-02    -2.92925106E-04
   2.30999999E-02    -2.86639784E-04
   2.32500006E-02    -2.79709056E-04
   2.33999994E-02    -2.72150239E-04
   2.35500000E-02    -2.63981667E-04
   2.37000007E-02    -2.55223567E-04
   2.38499995E-02    -2.45895382E-04
   2.40000002E-02    -2.36017164E-04
   2.41500009E-02    -2.25611409E-04
   2.42999997E-02    -2.14702261E-04
   2.44500004E-02    -2.03312942E-04
   2.45999992E-02    -1.91466926E-04
   2.47499999E-02    -1.79191717E-04
   2.49000005E-02    -1.66515252E-04
   2.50499994E-02    -1.53463319E-04
   2.52000000E-02    -1.40065618E-04
   2.53500007E-02    -1.26352941E-04
   2.54999995E-02    -1.12355134E-04
   2.56500002E-02    -9.81034755E-05
   2.58000009E-02    -8.36302643E-05
   2.59499997E-02    -6.89697263E-05
   2.61000004E-02    -5.41539121E-05
   2.62499992E-02    -3.92158763E-05
   2.63999999E-02    -2.41919533E-05
   2.65500005E-02    -9.11477673E-06
   2.66999993E-02     5.98168799E-06
   2.68500000E-02     2.10622438E-05
   2.70000007E-02     3.60940503E-05
   2.71499995E-02     5.10431455E-05
   2.73000002E-02     6.58767749E-05
   2.74500009E-02     8.05622476E-05
   2.75999997E-02     9.50669782E-05
   2.77500004E-02     1.09360139E-04
   2.78999992E-02     1.23409976E-04
   2.80499998E-02     1.37186056E-04
   2.82000005E-02     1.50658583E-04
   2.83499993E-02     1.63797158E-04
   2.85000000E-02     1.76573594E-04
   2.86500007E-02     1.88959311E-04
   2.87999995E-02     2.00925759E-04
   2.89500002E-02     2.12446917E-04
   2.91000009E-02     2.23496696E-04
   2.92499997E-02     2.34049061E-04
   2.94000003E-02     2.44079827E-04
   2.95499992E-02     2.53566919E-04
   2.96999998E-02     2.62487767E-04
   2.98500005E-02     2.70821387E-04
   2.99999993E-02     2.78549007E-04
   3.01500000E-02     2.85653281E-04
   3.03000007E-02     2.92118377E-04
   3.04499995E-02     2.97927996E-04
   3.06000002E-02     3.03071138E-04
   3.07500008E-02     3.07537353E-04
   3.08999997E-02     3.11314623E-04
   3.10500003E-02     3.14396311E-04
   3.11999992E-02     3.16776946E-04
   3.13500017E-02     3.18451057E-04
   3.15000005E-02     3.19415209E-04
   3.16499993E-02     3.19667364E-04
   3.18000019E-02     3.19208892E-04
   3.19500007E-02     3.18039878E-04
   3.20999995E-02     3.16161459E-04
   3.22499983E-02     3.13580676E-04
   3.24000008E-02     3.10301257E-04
   3.25499997E-02     3.06328904E-04
   3.26999985E-02     3.01673601E-04
   3.28500010E-02     2.96345825E-04
   3.29999998E-02     2.90355936E-04
   3.31499986E-02     2.83714937E-04
   3.33000012E-02     2.76440580E-04
   3.34500000E-02     2.68548814E-04
   3.35999988E-02     2.60053435E-04
   3.37500013E-02     2.50976620E-04
   3.39000002E-02     2.41338101E-04
   3.40499990E-02     2.31158949E-04
   3.42000015E-02     2.20462389E-04
   3.43500003E-02     2.09271762E-04
   3.44999991E-02     1.97615256E-04
   3.46500017E-02     1.85516008E-04
   3.48000005E-02     1.73001332E-04
   3.49499993E-02     1.60102980E-04
   3.51000018E-02     1.46846447E-04
   3.52500007E-02     1.33261754E-04
   3.53999995E-02     1.19380791E-04
   3.55499983E-02     1.05233412E-04
   3.57000008E-02     9.08522561E-05
   3.58499996E-02     7.62667405E-05
   3.59999985E-02     6.15106619E-05
   3.61500010E-02     4.66185411E-05
   3.62999998E-02     3.16198202E-05
   3.64499986E-02     1.65490783E-05
   3.66000012E-02     1.44163482E-06
   3.67500000E-02    -1.36710041E-05
   3.68999988E-02    -2.87549992E-05
   3.70500013E-02    -4.37758099E-05
   3.72000001E-02    -5.86994574E-05
   3.73499990E-02    -7.34935165E-05
   3.75000015E-02    -8.81256419E-05
   3.76500003E-02    -1.02560487E-04
   3.77999991E-02    -1.16766161E-04
   3.79500017E-02    -1.30713932E-04
   3.81000005E-02    -1.44369595E-04
   3.82499993E-02    -1.57701535E-04
   3.84000018E-02    -1.70683998E-04
   3.85500006E-02    -1.83285374E-04
   3.86999995E-02    -1.95476649E-04
   3.88499983E-02    -2.07233301E-04
   3.90000008E-02    -2.18527726E-04
   3.91499996E-02    -2.29335346E-04
   3.92999984E-02    -2.39630594E-04
   3.94500010E-02    -2.49392091E-04
   3.95999998E-02    -2.58599728E-04
   3.97499986E-02    -2.67227733E-04
   3.99000011E-02    -2.75261264E-04
   4.00500000E-02    -2.82683584E-04
   4.01999988E-02    -2.89471442E-04
   4.03500013E-02    -2.95615202E-04
   4.05000001E-02    -3.01100285E-04
   4.06499989E-02    -3.05912050E-04
   4.08000015E-02    -3.10041592E-04
   4.09500003E-02    -3.13476688E-04
   4.10999991E-02    -3.16214224E-04
   4.12500016E-02    -3.18244565E-04
   4.14000005E-02    -3.19561863E-04
   4.15499993E-02    -3.20169434E-04
   4.17000018E-02    -3.20059014E-04
   4.18500006E-02    -3.19233455E-04
   4.19999994E-02    -3.17698374E-04
   4.21499982E-02    -3.15451878E-04
   4.23000008E-02    -3.12503427E-04
   4.24499996E-02    -3.08856484E-04
   4.25999984E-02    -3.04520421E-04
   4.27500010E-02    -2.99507868E-04
   4.28999998E-02    -2.93824181E-04
   4.30499986E-02    -2.87487113E-04
   4.32000011E-02    -2.80509063E-04
   4.33499999E-02    -2.72902427E-04
   4.34999987E-02    -2.64689210E-04
   4.36500013E-02    -2.55883904E-04
   4.38000001E-02    -2.46506243E-04
   4.39499989E-02    -2.36578417E-04
   4.41000015E-02    -2.26118820E-04
   4.42500003E-02    -2.15155698E-04
   4.43999991E-02    -2.03710122E-04
   4.45500016E-02    -1.91806830E-04
   4.47000004E-02    -1.79475493E-04
   4.48499992E-02    -1.66740079E-04
   4.50000018E-02    -1.53633155E-04
   4.51500006E-02    -1.40181786E-04
   4.52999994E-02    -1.26414874E-04
   4.54499982E-02    -1.12368252E-04
   4.56000008E-02    -9.80675104E-05
   4.57499996E-02    -8.35485334E-05
   4.58999984E-02    -6.88449654E-05
   4.60500009E-02    -5.39846842E-05
   4.61999997E-02    -3.90053829E-05
   4.63499986E-02    -2.39366964E-05
   4.65000011E-02    -8.81391497E-06
   4.66499999E-02     6.32883803E-06
   4.67999987E-02     2.14647844E-05
   4.69500013E-02     3.65533488E-05
   4.71000001E-02     5.15661704E-05
   4.72499989E-02     6.64730833E-05
   4.74000014E-02     8.12350045E-05
   4.75500003E-02     9.58275341E-05
   4.76999991E-02     1.10214998E-04
   4.78500016E-02     1.24365470E-04
   4.80000004E-02     1.38252784E-04
   4.81499992E-02     1.51838525E-04
   4.83000018E-02     1.65100020E-04
   4.84500006E-02     1.78004499E-04
   4.85999994E-02     1.90518404E-04
   4.87499982E-02     2.02622658E-04
   4.89000008E-02     2.14279789E-04
   4.90499996E-02     2.25466138E-04
   4.91999984E-02     2.36159074E-04
   4.93500009E-02     2.46323994E-04
   4.94999997E-02     2.55946186E-04
   4.96499985E-02     2.64998205E-04
   4.98000011E-02     2.73455167E-04
   4.99499999E-02     2.81304790E-04
   5.00999987E-02     2.88519135E-04
   5.02500013E-02     2.95086938E-04
   5.04000001E-02     3.00993095E-04
   5.05499989E-02     3.06216476E-04
   5.07000014E-02     3.10754462E-04
   5.08500002E-02     3.14589939E-04
   5.09999990E-02     3.17713188E-04
   5.11500016E-02     3.20126419E-04
   5.13000004E-02     3.21813219E-04
   5.14499992E-02     3.22775071E-04
   5.16000018E-02     3.23012500E-04
   5.17500006E-02     3.22517968E-04
   5.18999994E-02     3.21301777E-04
   5.20499982E-02     3.19360377E-04
   5.22000007E-02     3.16697347E-04
   5.23499995E-02     3.13327037E-04
   5.24999984E-02     3.09246941E-04
   5.26500009E-02     3.04472109E-04
   5.27999997E-02     2.99014442E-04
   5.29499985E-02     2.92878976E-04
   5.31000011E-02     2.86089460E-04
   5.32499999E-02     2.78653082E-04
   5.33999987E-02     2.70587974E-04
   5.35500012E-02     2.61920941E-04
   5.37000000E-02     2.52658239E-04
   5.38499989E-02     2.42830356E-04
   5.40000014E-02     2.32460967E-04
   5.41500002E-02     2.21563489E-04
   5.42999990E-02     2.10174927E-04
   5.44500016E-02     1.98314490E-04
   5.46000004E-02     1.86010278E-04
   5.47499992E-02     1.73293942E-04
   5.49000017E-02     1.60183670E-04
   5.50500005E-02     1.46723949E-04
   5.51999994E-02     1.32936766E-04
   5.53499982E-02     1.18845936E-04
   5.55000007E-02     1.04499457E-04
   5.56499995E-02     8.99151055E-05
   5.57999983E-02     7.51297848E-05
   5.59500009E-02     6.01800057E-05
   5.60999997E-02     4.50900552E-05
   5.62499985E-02     2.99048752E-05
   5.64000010E-02     1.46447064E-05
   5.65499999E-02    -6.48915716E-07
   5.66999987E-02    -1.59349092E-05
   5.68500012E-02    -3.11994445E-05
   5.70000000E-02    -4.63904980E-05
   5.71499988E-02    -6.14791934E-05
   5.73000014E-02    -7.64373544E-05
   5.74500002E-02    -9.12204996E-05
   5.75999990E-02    -1.05809435E-04
   5.77500015E-02    -1.20156154E-04
   5.79000004E-02    -1.34236718E-04
   5.80499992E-02    -1.48025501E-04
   5.82000017E-02    -1.61469579E-04
   5.83500005E-02    -1.74563218E-04
   5.84999993E-02    -1.87266211E-04
   5.86499982E-02    -1.99542483E-04
   5.88000007E-02    -2.11381659E-04
   5.89499995E-02    -2.22738629E-04
   5.90999983E-02    -2.33605708E-04
   5.92500009E-02    -2.43949340E-04
   5.93999997E-02    -2.53738428E-04
   5.95499985E-02    -2.62977876E-04
   5.97000010E-02    -2.71617522E-04
   5.98499998E-02    -2.79653614E-04
   5.99999987E-02    -2.87076982E-04
   6.01500012E-02    -2.93845253E-04
   6.03000000E-02    -2.99972598E-04
   6.04499988E-02    -3.05426249E-04
   6.06000014E-02    -3.10196687E-04
   6.07500002E-02    -3.14289151E-04
   6.08999990E-02    -3.17663624E-04
   6.10500015E-02    -3.20343679E-04
   6.12000003E-02    -3.22309206E-04
   6.13499992E-02    -3.23542481E-04
   6.15000017E-02    -3.24072840E-04
   6.16500005E-02    -3.23863816E-04
   6.17999993E-02    -3.22934735E-04
   6.19499981E-02    -3.21292726E-04
   6.21000007E-02    -3.18914885E-04
   6.22499995E-02    -3.15840240E-04
   6.23999983E-02    -3.12050252E-04
   6.25500008E-02    -3.07557348E-04
   6.27000034E-02    -3.02391796E-04
   6.28499985E-02    -2.96532671E-04
   6.30000010E-02    -2.90021911E-04
   6.31500036E-02    -2.82864261E-04
   6.32999986E-02    -2.75063358E-04
   6.34500012E-02    -2.66666466E-04
   6.36000037E-02    -2.57663341E-04
   6.37499988E-02    -2.48089345E-04
   6.39000013E-02    -2.37973029E-04
   6.40499964E-02    -2.27314085E-04
   6.41999990E-02    -2.16164262E-04
   6.43500015E-02    -2.04533528E-04
   6.44999966E-02    -1.92445106E-04
   6.46499991E-02    -1.79943891E-04
   6.48000017E-02    -1.67036502E-04
   6.49499968E-02    -1.53767833E-04
   6.50999993E-02    -1.40167045E-04
   6.52500018E-02    -1.26250787E-04
   6.53999969E-02    -1.12069203E-04
   6.55499995E-02    -9.76407609E-05
   6.57000020E-02    -8.29978380E-05
   6.58499971E-02    -6.81844976E-05
   6.59999996E-02    -5.32162994E-05
   6.61500022E-02    -3.81349928E-05
   6.62999973E-02    -2.29745201E-05
   6.64499998E-02    -7.75478475E-06
   6.66000023E-02     7.47956665E-06
   6.67499974E-02     2.27046021E-05
   6.69000000E-02     3.78950208E-05
   6.70500025E-02     5.30086654E-05
   6.71999976E-02     6.80281155E-05
   6.73500001E-02     8.29195706E-05
   6.75000027E-02     9.76488082E-05
   6.76499978E-02     1.12200920E-04
   6.78000003E-02     1.26532512E-04
   6.79500028E-02     1.40620934E-04
   6.80999979E-02     1.54443638E-04
   6.82500005E-02     1.67953360E-04
   6.84000030E-02     1.81138894E-04
   6.85499981E-02     1.93962434E-04
   6.87000006E-02     2.06383775E-04
   6.88500032E-02     2.18391957E-04
   6.89999983E-02     2.29937141E-04
   6.91500008E-02     2.40997295E-04
   6.93000033E-02     2.51546968E-04
   6.94499984E-02     2.61539390E-04
   6.96000010E-02     2.70969467E-04
   6.97500035E-02     2.79791799E-04
   6.98999986E-02     2.87981791E-04
   7.00500011E-02     2.95534293E-04
   7.02000037E-02     3.02399305E-04
   7.03499988E-02     3.08577495E-04
   7.05000013E-02     3.14049801E-04
   7.06499964E-02     3.18784820E-04
   7.07999989E-02     3.22795095E-04
   7.09500015E-02     3.26047273E-04
   7.10999966E-02     3.28544120E-04
   7.12499991E-02     3.30288400E-04
   7.14000016E-02     3.31251882E-04
   7.15499967E-02     3.31461866E-04
   7.16999993E-02     3.30903451E-04
   7.18500018E-02     3.29574134E-04
   7.19999969E-02     3.27502028E-04
   7.21499994E-02     3.24665714E-04
   7.23000020E-02     3.21092288E-04
   7.24499971E-02     3.16790974E-04
   7.25999996E-02     3.11756041E-04
   7.27500021E-02     3.06027679E-04
   7.28999972E-02     2.99597566E-04
   7.30499998E-02     2.92488112E-04
   7.32000023E-02     2.84729380E-04
   7.33499974E-02     2.76314473E-04
   7.34999999E-02     2.67288793E-04
   7.36500025E-02     2.57660024E-04
   7.37999976E-02     2.47443939E-04
   7.39500001E-02     2.36687716E-04
   7.41000026E-02     2.25387630E-04
   7.42499977E-02     2.13585328E-04
   7.44000003E-02     2.01311355E-04
   7.45500028E-02     1.88574282E-04
   7.46999979E-02     1.75425273E-04
   7.48500004E-02     1.61877833E-04
   7.50000030E-02     1.47966435E-04
   7.51499981E-02     1.33731985E-04
   7.53000006E-02     1.19184922E-04
   7.54500031E-02     1.04380553E-04
   7.55999982E-02     8.93431134E-05
   7.57500008E-02     7.40953983E-05
   7.59000033E-02     5.86931274E-05
   7.60499984E-02     4.31528424E-05
   7.62000009E-02     2.75152652E-05
   7.63500035E-02     1.18205498E-05
   7.64999986E-02    -3.90737750E-06
   7.66500011E-02    -1.96195415E-05
   7.68000036E-02    -3.52937132E-05
   7.69499987E-02    -5.08914782E-05
   7.71000013E-02    -6.63669489E-05
   7.72499964E-02    -8.17032997E-05
   7.73999989E-02    -9.68549575E-05
   7.75500014E-02    -1.11787835E-04
   7.76999965E-02    -1.26477040E-04
   7.78499991E-02    -1.40880191E-04
   7.80000016E-02    -1.54971480E-04
   7.81499967E-02    -1.68714905E-04
   7.82999992E-02    -1.82080126E-04
   7.84500018E-02    -1.95043307E-04
   7.85999969E-02    -2.07563731E-04
   7.87499994E-02    -2.19618159E-04
   7.89000019E-02    -2.31180500E-04
   7.90499970E-02    -2.42218084E-04
   7.91999996E-02    -2.52708036E-04
   7.93500021E-02    -2.62622809E-04
   7.94999972E-02    -2.71939789E-04
   7.96499997E-02    -2.80631648E-04
   7.98000023E-02    -2.88676005E-04
   7.99499974E-02    -2.96058512E-04
   8.00999999E-02    -3.02752538E-04
   8.02500024E-02    -3.08741553E-04
   8.03999975E-02    -3.14011180E-04
   8.05500001E-02    -3.18547391E-04
   8.07000026E-02    -3.22339853E-04
   8.08499977E-02    -3.25375964E-04
   8.10000002E-02    -3.27656831E-04
   8.11500028E-02    -3.29174829E-04
   8.12999979E-02    -3.29926756E-04
   8.14500004E-02    -3.29926464E-04
   8.16000029E-02    -3.29171511E-04
   8.17499980E-02    -3.27672140E-04
   8.19000006E-02    -3.25443689E-04
   8.20500031E-02    -3.22494627E-04
   8.21999982E-02    -3.18846724E-04
   8.23500007E-02    -3.14511271E-04
   8.25000033E-02    -3.09508992E-04
   8.26499984E-02    -3.03864304E-04
   8.28000009E-02    -2.97585153E-04
   8.29500034E-02    -2.90701340E-04
   8.30999985E-02    -2.83229980E-04
   8.32500011E-02    -2.75183003E-04
   8.34000036E-02    -2.66589283E-04
   8.35499987E-02    -2.57459469E-04
   8.37000012E-02    -2.47811840E-04
   8.38499963E-02    -2.37666682E-04
   8.39999989E-02    -2.27034776E-04
   8.41500014E-02    -2.15940410E-04
   8.42999965E-02    -2.04396565E-04
   8.44499990E-02    -1.92419844E-04
   8.46000016E-02    -1.80034534E-04
   8.47499967E-02    -1.67253238E-04
   8.48999992E-02    -1.54103429E-04
   8.50500017E-02    -1.40608754E-04
   8.51999968E-02    -1.26785817E-04
   8.53499994E-02    -1.12668124E-04
   8.55000019E-02    -9.82811907E-05
   8.56499970E-02    -8.36520412E-05
   8.57999995E-02    -6.88156142E-05
   8.59500021E-02    -5.38002023E-05
   8.60999972E-02    -3.86401734E-05
   8.62499997E-02    -2.33693900E-05
   8.64000022E-02    -8.02215163E-06
   8.65499973E-02     7.36272659E-06
   8.66999999E-02     2.27539967E-05
   8.68500024E-02     3.81148893E-05
   8.69999975E-02     5.34056162E-05
   8.71500000E-02     6.85939085E-05
   8.73000026E-02     8.36433173E-05
   8.74499977E-02     9.85173101E-05
   8.76000002E-02     1.13182054E-04
   8.77500027E-02     1.27602761E-04
   8.78999978E-02     1.41747179E-04
   8.80500004E-02     1.55581030E-04
   8.82000029E-02     1.69072140E-04
   8.83499980E-02     1.82191827E-04